
## Élections législatives lettonnes de 2018

Les élections législatives lettonnes de 2018 se déroulent le 6 octobre 2018 afin de renouveler les 100 membres de la Saeima de Lettonie.
Le scrutin voit arrivé à nouveau en tête le Parti social-démocrate « Harmonie » de la minorité russophone, qui continue cependant à faire l'objet d'un cordon sanitaire de la part du reste de la classe politique. Les partis Qui possède l'État ?, Nouveau Parti conservateur, ainsi que l'alliance Développement/Pour ! arrivent en position suivante et font leur entrée au parlement. Une large coalition est ainsi nécessaire.
Après quatre mois de négociations, une nouvelle coalition pentapartite de droite réunissant les partis Nouvelle unité, Développement/Pour !, Qui possède l'État ?, le Nouveau Parti conservateur et Alliance nationale forme un nouveau gouvernement. Arturs Krišjānis Kariņš, ancien ministre de l'économie et dirigeant de Nouvelle unité, devient Premier Ministre.

# Mode de scrutin 

Le parlement unicaméral de Lettonie, la Saeima, est composé de 100 sièges dont les membres sont élus pour quatre ans au scrutin proportionnel de liste dans cinq circonscriptions plurinominales correspondants aux régions lettonnes. Ces régions — Vidzeme, Latgale, Courlande, Zemgale et la capitale Riga qui englobe également les votes des lettons de l'étranger — sont pourvus de 13 à 32 sièges en fonction de leur population. Le scrutin a lieu avec listes ouvertes et la possibilité pour les électeurs d'exprimer un vote préférentiel positif ou négatif envers un ou plusieurs candidats. Le résultats en voix est répartis en sièges à l'aide de la méthode de St. Lagüe à toutes les listes ayant dépassées le seuil électoral de 5 %.

# Forces en présence 

# Sondages 

# Résultats 

 Représentation selon l'axe gauche/droite :

# Formation d'un gouvernement 

Le 18 octobre, les dirigeants des différents partis rencontrent le président Raimonds Vējonis pour initier des négociations en vue de la formation d'une coalition. Bien qu'aucune proposition de Premier ministre ne fasse alors consensus, les partis font état de leurs volonté d'arriver à un accord tout en excluant le parti pro-russe Harmonie, si besoin en réunissant de manière très large les partis restants. Des propositions sont ainsi avancées pour la formation de coalition à cinq voire six partis, soit l'ensemble du parlement à l'exclusion d'Harmonie.
Le dirigeant du Nouveau parti conservateur, Janis Bordans, est chargé le 7 novembre par le président de former un gouvernement de coalition sous quinze jours. Il y renonce finalement le 14 novembre. Le 26 novembre, le président confie la même mission à Aldis Gobzems (lv), membre de Qui possède l'État ?, qui propose une coalition avec le Parti conservateur, l'Alliance nationale, Unité et l'Union des verts et des paysans, malgré les objections des conservateurs d'inclure cette dernière, mais l'accord n'est pas trouvé et Gobzems est déchargé de sa mission par le président le 10 décembre suivant.
Le 23 janvier 2019, le dirigeant de Nouvelle unité, Arturs Krišjānis Kariņš, parvient à former un gouvernement de coalition réunissant cinq partis. Au sien s'ajoutent ainsi Développement/Pour !, Qui possède l'État ?, le Nouveau Parti conservateur et Alliance nationale, totalisant une majorité absolue de 66 sièges sur 100,.
Composition de la coalition :

 

# Notes et références 

 Portail de la politique Portail de la Lettonie Portail des années 2010
